
                        S T E P       1


                                INCREMENT     1


 displacements (vx,vy,vz) for set NALL and time  0.1000000E+01

         1 -2.015756E-06  1.685378E-05  5.696329E-04
         2  2.015756E-06  1.685378E-05  5.696329E-04
         3 -1.885500E-06  1.676880E-05 -5.672721E-04
         4  1.885500E-06  1.676880E-05 -5.672721E-04
         5 -2.015756E-06  1.685378E-05 -5.696329E-04
         6  2.015756E-06  1.685378E-05 -5.696329E-04
         7 -1.885500E-06  1.676880E-05  5.672721E-04
         8  1.885500E-06  1.676880E-05  5.672721E-04
         9 -1.089146E-06  1.636710E-05  5.697313E-04
        10 -1.603754E-17  1.546611E-05  5.697918E-04
        11  1.089146E-06  1.636710E-05  5.697313E-04
        12  2.089837E-06  9.297924E-06  2.854798E-04
        13  0.000000E+00  0.000000E+00  0.000000E+00
        14 -2.136658E-06  9.147900E-06 -2.841568E-04
        15 -1.042954E-06  1.610214E-05 -5.675865E-04
        16  1.284760E-17  1.505326E-05 -5.678388E-04
        17  1.042954E-06  1.610214E-05 -5.675865E-04
        18  2.136658E-06  9.147900E-06 -2.841568E-04
        19  0.000000E+00  0.000000E+00  0.000000E+00
        20 -2.089837E-06  9.297924E-06  2.854798E-04
        21 -1.089146E-06  1.636710E-05 -5.697313E-04
        22 -5.443460E-18  1.546611E-05 -5.697918E-04
        23  1.089146E-06  1.636710E-05 -5.697313E-04
        24  2.089837E-06  9.297924E-06 -2.854798E-04
        25  0.000000E+00  0.000000E+00  0.000000E+00
        26 -2.136658E-06  9.147900E-06  2.841568E-04
        27 -1.042954E-06  1.610214E-05  5.675865E-04
        28  1.577604E-17  1.505326E-05  5.678388E-04
        29  1.042954E-06  1.610214E-05  5.675865E-04
        30  2.136658E-06  9.147900E-06  2.841568E-04
        31  0.000000E+00  0.000000E+00  0.000000E+00
        32 -2.089837E-06  9.297924E-06 -2.854798E-04
        33  4.466191E-06  5.884989E-04  5.624170E-04
        34  1.076038E-05  1.162046E-03  5.359764E-04
        35  1.644151E-05  1.688730E-03  4.917121E-04
        36  2.120385E-05  2.169816E-03  4.291601E-04
        37  2.635575E-05  2.571229E-03  3.487421E-04
        38  3.214183E-05  2.892164E-03  2.523581E-04
        39  3.859266E-05  3.100142E-03  1.324209E-04
        40  4.123737E-05  3.177132E-03 -2.504682E-17
        41  3.859266E-05  3.100142E-03 -1.324209E-04
        42  3.214183E-05  2.892164E-03 -2.523581E-04
        43  2.635575E-05  2.571229E-03 -3.487421E-04
        44  2.120385E-05  2.169816E-03 -4.291601E-04
        45  1.644151E-05  1.688730E-03 -4.917121E-04
        46  1.076038E-05  1.162046E-03 -5.359764E-04
        47  4.466191E-06  5.884989E-04 -5.624170E-04
        48 -4.466191E-06  5.884989E-04 -5.624170E-04
        49 -1.076038E-05  1.162046E-03 -5.359764E-04
        50 -1.644151E-05  1.688730E-03 -4.917121E-04
        51 -2.120385E-05  2.169816E-03 -4.291601E-04
        52 -2.635575E-05  2.571229E-03 -3.487421E-04
        53 -3.214183E-05  2.892164E-03 -2.523581E-04
        54 -3.859266E-05  3.100142E-03 -1.324209E-04
        55 -4.123737E-05  3.177132E-03 -2.255999E-17
        56 -3.859266E-05  3.100142E-03  1.324209E-04
        57 -3.214183E-05  2.892164E-03  2.523581E-04
        58 -2.635575E-05  2.571229E-03  3.487421E-04
        59 -2.120385E-05  2.169816E-03  4.291601E-04
        60 -1.644151E-05  1.688730E-03  4.917121E-04
        61 -1.076038E-05  1.162046E-03  5.359764E-04
        62 -4.466191E-06  5.884989E-04  5.624170E-04
        63 -4.492781E-06  5.872008E-04 -5.611748E-04
        64 -1.061997E-05  1.161523E-03 -5.346607E-04
        65 -1.712776E-05  1.688254E-03 -4.904646E-04
        66 -2.109937E-05  2.171119E-03 -4.273872E-04
        67 -2.627394E-05  2.568863E-03 -3.472049E-04
        68 -2.817711E-05  2.894801E-03 -2.495301E-04
        69 -4.407479E-05  3.100844E-03 -1.315356E-04
        70 -6.229121E-05  3.239424E-03 -1.721661E-18
        71 -4.407479E-05  3.100844E-03  1.315356E-04
        72 -2.817711E-05  2.894801E-03  2.495301E-04
        73 -2.627394E-05  2.568863E-03  3.472049E-04
        74 -2.109937E-05  2.171119E-03  4.273872E-04
        75 -1.712776E-05  1.688254E-03  4.904646E-04
        76 -1.061997E-05  1.161523E-03  5.346607E-04
        77 -4.492781E-06  5.872008E-04  5.611748E-04
        78  4.492781E-06  5.872008E-04 -5.611748E-04
        79  1.061997E-05  1.161523E-03 -5.346607E-04
        80  1.712776E-05  1.688254E-03 -4.904646E-04
        81  2.109937E-05  2.171119E-03 -4.273872E-04
        82  2.627394E-05  2.568863E-03 -3.472049E-04
        83  2.817711E-05  2.894801E-03 -2.495301E-04
        84  4.407479E-05  3.100844E-03 -1.315356E-04
        85  6.229121E-05  3.239424E-03 -3.237869E-18
        86  4.407479E-05  3.100844E-03  1.315356E-04
        87  2.817711E-05  2.894801E-03  2.495301E-04
        88  2.627394E-05  2.568863E-03  3.472049E-04
        89  2.109937E-05  2.171119E-03  4.273872E-04
        90  1.712776E-05  1.688254E-03  4.904646E-04
        91  1.061997E-05  1.161523E-03  5.346607E-04
        92  4.492781E-06  5.872008E-04  5.611748E-04
        93 -8.845138E-18  8.415880E-06  2.853873E-04
        94  0.000000E+00  0.000000E+00  0.000000E+00
        95  0.000000E+00  0.000000E+00  0.000000E+00
        96  0.000000E+00  0.000000E+00  0.000000E+00
        97  7.850003E-18  8.154223E-06 -2.841158E-04
        98 -3.571214E-18  8.415880E-06 -2.853873E-04
        99  0.000000E+00  0.000000E+00  0.000000E+00
       100  0.000000E+00  0.000000E+00  0.000000E+00
       101  0.000000E+00  0.000000E+00  0.000000E+00
       102  6.967694E-18  8.154223E-06  2.841158E-04
       103  1.834043E-18  5.868274E-04  5.632366E-04
       104 -5.358285E-06  1.157585E-03  5.373963E-04
       105  1.754824E-17  1.155755E-03  5.371203E-04
       106  5.358285E-06  1.157585E-03  5.373963E-04
       107  3.014183E-17  1.680832E-03  4.928756E-04
       108 -1.060159E-05  2.161110E-03  4.301547E-04
       109  3.826007E-17  2.158022E-03  4.300020E-04
       110  1.060159E-05  2.161110E-03  4.301547E-04
       111  4.543460E-17  2.558799E-03  3.501851E-04
       112 -1.608737E-05  2.880070E-03  2.534111E-04
       113  5.090891E-17  2.874986E-03  2.528273E-04
       114  1.608737E-05  2.880070E-03  2.534111E-04
       115  5.672647E-17  3.080605E-03  1.335062E-04
       116 -2.048143E-05  3.157905E-03 -8.398395E-18
       117  5.807184E-17  3.154525E-03  6.556348E-18
       118  2.048143E-05  3.157905E-03 -1.022155E-17
       119  6.085098E-17  3.080605E-03 -1.335062E-04
       120 -1.608737E-05  2.880070E-03 -2.534111E-04
       121  6.028615E-17  2.874986E-03 -2.528273E-04
       122  1.608737E-05  2.880070E-03 -2.534111E-04
       123  5.077060E-17  2.558799E-03 -3.501851E-04
       124 -1.060159E-05  2.161110E-03 -4.301547E-04
       125  4.251577E-17  2.158022E-03 -4.300020E-04
       126  1.060159E-05  2.161110E-03 -4.301547E-04
       127  3.810395E-17  1.680832E-03 -4.928756E-04
       128 -5.358285E-06  1.157585E-03 -5.373963E-04
       129  2.419983E-17  1.155755E-03 -5.371203E-04
       130  5.358285E-06  1.157585E-03 -5.373963E-04
       131  1.350819E-17  5.868274E-04 -5.632366E-04
       132 -1.362789E-07  5.967376E-04  4.806521E-07
       133  5.112443E-06  1.161957E-03  2.645950E-04
       134 -1.149562E-07  1.159642E-03  5.349696E-07
       135 -5.233709E-06  1.161713E-03 -2.633571E-04
       136 -4.619369E-08  1.698521E-03  7.114324E-07
       137  1.050043E-05  2.174786E-03  2.123409E-04
       138 -2.348012E-07  2.174558E-03  5.930528E-07
       139 -1.024279E-05  2.175395E-03 -2.110726E-04
       140 -7.765053E-08  2.588039E-03  9.732423E-07
       141  1.632422E-05  2.901547E-03  1.225531E-04
       142  7.424835E-08  2.902007E-03 -3.923120E-07
       143 -1.600567E-05  2.903199E-03 -1.207320E-04
       144 -6.276551E-07  3.120909E-03  4.034092E-06
       145  1.879646E-05  3.188870E-03 -1.929882E-17
       146 -7.466774E-07  3.193158E-03 -1.254710E-17
       147 -2.315434E-05  3.218749E-03 -4.718158E-18
       148 -6.276551E-07  3.120909E-03 -4.034092E-06
       149  1.632422E-05  2.901547E-03 -1.225531E-04
       150  7.424835E-08  2.902007E-03  3.923120E-07
       151 -1.600567E-05  2.903199E-03  1.207320E-04
       152 -7.765053E-08  2.588039E-03 -9.732423E-07
       153  1.050043E-05  2.174786E-03 -2.123409E-04
       154 -2.348012E-07  2.174558E-03 -5.930528E-07
       155 -1.024279E-05  2.175395E-03  2.110726E-04
       156 -4.619369E-08  1.698521E-03 -7.114324E-07
       157  5.112443E-06  1.161957E-03 -2.645950E-04
       158 -1.149562E-07  1.159642E-03 -5.349696E-07
       159 -5.233709E-06  1.161713E-03  2.633571E-04
       160 -1.362789E-07  5.967376E-04 -4.806521E-07
       161  4.296510E-17  5.858503E-04 -5.619709E-04
       162 -5.308890E-06  1.157077E-03 -5.361945E-04
       163  6.357512E-17  1.154818E-03 -5.358927E-04
       164  5.308890E-06  1.157077E-03 -5.361945E-04
       165  7.362024E-17  1.680382E-03 -4.915522E-04
       166 -1.045726E-05  2.160581E-03 -4.284291E-04
       167  8.610761E-17  2.157415E-03 -4.287457E-04
       168  1.045726E-05  2.160581E-03 -4.284291E-04
       169  8.482113E-17  2.558391E-03 -3.480732E-04
       170 -1.449265E-05  2.884133E-03 -2.510308E-04
       171  9.307377E-17  2.873727E-03 -2.498501E-04
       172  1.449265E-05  2.884133E-03 -2.510308E-04
       173  9.767845E-17  3.082276E-03 -1.343675E-04
       174 -2.987838E-05  3.188990E-03  2.659598E-18
       175  8.958926E-17  3.179977E-03  8.171246E-18
       176  2.987838E-05  3.188990E-03  9.911526E-19
       177  9.680839E-17  3.082276E-03  1.343675E-04
       178 -1.449265E-05  2.884133E-03  2.510308E-04
       179  8.713355E-17  2.873727E-03  2.498501E-04
       180  1.449265E-05  2.884133E-03  2.510308E-04
       181  8.321967E-17  2.558391E-03  3.480732E-04
       182 -1.045726E-05  2.160581E-03  4.284291E-04
       183  8.526345E-17  2.157415E-03  4.287457E-04
       184  1.045726E-05  2.160581E-03  4.284291E-04
       185  8.187911E-17  1.680382E-03  4.915522E-04
       186 -5.308890E-06  1.157077E-03  5.361945E-04
       187  6.785936E-17  1.154818E-03  5.358927E-04
       188  5.308890E-06  1.157077E-03  5.361945E-04
       189  4.597540E-17  5.858503E-04  5.619709E-04
       190  1.362789E-07  5.967376E-04  4.806521E-07
       191  5.233709E-06  1.161713E-03 -2.633571E-04
       192  1.149562E-07  1.159642E-03  5.349696E-07
       193 -5.112443E-06  1.161957E-03  2.645950E-04
       194  4.619369E-08  1.698521E-03  7.114324E-07
       195  1.024279E-05  2.175395E-03 -2.110726E-04
       196  2.348012E-07  2.174558E-03  5.930528E-07
       197 -1.050043E-05  2.174786E-03  2.123409E-04
       198  7.765053E-08  2.588039E-03  9.732423E-07
       199  1.600567E-05  2.903199E-03 -1.207320E-04
       200 -7.424835E-08  2.902007E-03 -3.923120E-07
       201 -1.632422E-05  2.901547E-03  1.225531E-04
       202  6.276551E-07  3.120909E-03  4.034092E-06
       203  2.315434E-05  3.218749E-03 -8.182643E-18
       204  7.466774E-07  3.193158E-03 -7.825938E-18
       205 -1.879646E-05  3.188870E-03 -1.383832E-17
       206  6.276551E-07  3.120909E-03 -4.034092E-06
       207  1.600567E-05  2.903199E-03  1.207320E-04
       208 -7.424835E-08  2.902007E-03  3.923120E-07
       209 -1.632422E-05  2.901547E-03 -1.225531E-04
       210  7.765053E-08  2.588039E-03 -9.732423E-07
       211  1.024279E-05  2.175395E-03  2.110726E-04
       212  2.348012E-07  2.174558E-03 -5.930528E-07
       213 -1.050043E-05  2.174786E-03 -2.123409E-04
       214  4.619369E-08  1.698521E-03 -7.114324E-07
       215  5.233709E-06  1.161713E-03  2.633571E-04
       216  1.149562E-07  1.159642E-03 -5.349696E-07
       217 -5.112443E-06  1.161957E-03 -2.645950E-04
       218  1.362789E-07  5.967376E-04 -4.806521E-07
       219  1.797271E-17  5.933450E-04  4.439144E-07
       220  2.876860E-17  1.156750E-03  2.659941E-04
       221  5.078929E-08  1.156124E-03  6.289568E-07
       222  4.036133E-17  1.155461E-03  6.744641E-07
       223 -5.078929E-08  1.156124E-03  6.289568E-07
       224  5.124833E-17  1.156238E-03 -2.648100E-04
       225  5.365234E-17  1.689844E-03  6.424773E-07
       226  4.926712E-17  2.164276E-03  2.133464E-04
       227  1.353667E-07  2.167516E-03  6.320897E-07
       228  5.897751E-17  2.165279E-03  7.630005E-07
       229 -1.353667E-07  2.167516E-03  6.320897E-07
       230  7.247032E-17  2.164108E-03 -2.118938E-04
       231  6.688132E-17  2.573837E-03  8.525026E-07
       232  6.181065E-17  2.886128E-03  1.240074E-04
       233 -9.372143E-08  2.890235E-03  1.710090E-07
       234  7.113658E-17  2.888615E-03  5.877163E-07
       235  9.372143E-08  2.890235E-03  1.710090E-07
       236  8.008818E-17  2.885200E-03 -1.218072E-04
       237  7.322631E-17  3.099353E-03  2.724364E-06
       238  6.760047E-17  3.168678E-03 -6.390219E-18
       239  5.245846E-08  3.181977E-03 -1.131725E-17
       240  7.683212E-17  3.173517E-03 -1.557434E-17
       241 -5.245846E-08  3.181977E-03 -1.328342E-17
       242  8.273925E-17  3.181443E-03 -2.283887E-18
       243  7.644779E-17  3.099353E-03 -2.724364E-06
       244  6.707107E-17  2.886128E-03 -1.240074E-04
       245 -9.372143E-08  2.890235E-03 -1.710090E-07
       246  7.505845E-17  2.888615E-03 -5.877163E-07
       247  9.372143E-08  2.890235E-03 -1.710090E-07
       248  8.251509E-17  2.885200E-03  1.218072E-04
       249  6.942098E-17  2.573837E-03 -8.525026E-07
       250  5.309592E-17  2.164276E-03 -2.133464E-04
       251  1.353667E-07  2.167516E-03 -6.320897E-07
       252  6.429188E-17  2.165279E-03 -7.630005E-07
       253 -1.353667E-07  2.167516E-03 -6.320897E-07
       254  7.407437E-17  2.164108E-03  2.118938E-04
       255  6.054339E-17  1.689844E-03 -6.424773E-07
       256  4.075860E-17  1.156750E-03 -2.659941E-04
       257  5.078929E-08  1.156124E-03 -6.289568E-07
       258  5.513485E-17  1.155461E-03 -6.744641E-07
       259 -5.078929E-08  1.156124E-03 -6.289568E-07
       260  6.191186E-17  1.156238E-03  2.648100E-04
       261  2.329382E-17  5.933450E-04 -4.439144E-07

 stresses (elem, integ.pnt.,sxx,syy,szz,sxy,sxz,syz) for set EALL and time  0.1000000E+01

         1   1  1.951558E-01 -5.266427E-01 -2.253870E+00 -1.504075E-01 -3.346606E-02  1.186696E+00
         1   2  2.817965E-01 -7.160622E-01 -2.080839E+00 -1.091143E-01 -3.319005E-02  1.083318E+00
         1   3 -8.097534E-01 -2.386067E+00 -1.703052E+00  2.133649E-01  4.257480E-02  3.900218E+00
         1   4 -7.787642E-01 -2.458961E+00 -1.615313E+00 -1.332238E-02  7.689256E-04  3.589866E+00
         1   5  7.597696E-02  1.055584E+00 -9.241182E+00 -3.964391E-02 -2.103602E-01  2.248027E+00
         1   6  1.046476E-01  1.008187E+00 -9.104839E+00  1.137110E-02 -1.631834E-01  1.905656E+00
         1   7  2.135440E-01  1.063184E+00 -2.496273E+00 -6.383832E-02  3.367395E-02  3.051541E+00
         1   8  2.535681E-01  1.037659E+00 -2.364047E+00  1.672313E-02  9.346003E-03  2.702661E+00
         2   1  2.817965E-01 -7.160622E-01 -2.080839E+00  1.091143E-01  3.319005E-02  1.083318E+00
         2   2  1.951558E-01 -5.266427E-01 -2.253870E+00  1.504075E-01  3.346606E-02  1.186696E+00
         2   3 -7.787642E-01 -2.458961E+00 -1.615313E+00  1.332238E-02 -7.689256E-04  3.589866E+00
         2   4 -8.097534E-01 -2.386067E+00 -1.703052E+00 -2.133649E-01 -4.257480E-02  3.900218E+00
         2   5  1.046476E-01  1.008187E+00 -9.104839E+00 -1.137110E-02  1.631834E-01  1.905656E+00
         2   6  7.597696E-02  1.055584E+00 -9.241182E+00  3.964391E-02  2.103602E-01  2.248027E+00
         2   7  2.535681E-01  1.037659E+00 -2.364047E+00 -1.672313E-02 -9.346003E-03  2.702661E+00
         2   8  2.135440E-01  1.063184E+00 -2.496273E+00  6.383832E-02 -3.367395E-02  3.051541E+00
         3   1  9.230280E-01  2.472097E+00  2.248492E+00  2.334945E-01 -1.659758E-02  4.111789E+00
         3   2  8.999499E-01  2.588220E+00  2.155926E+00 -4.489630E-03 -3.477443E-04  3.824588E+00
         3   3 -2.317823E-01  5.203573E-01  2.206675E+00 -1.732534E-01  3.808654E-02  1.190596E+00
         3   4 -3.145952E-01  7.446530E-01  2.106262E+00 -1.132679E-01  3.244441E-02  1.112688E+00
         3   5 -3.018702E-01 -1.179612E+00  2.716789E+00 -6.416405E-02 -4.149315E-02  3.096879E+00
         3   6 -3.102560E-01 -1.133015E+00  2.643145E+00  6.114174E-04 -1.918205E-02  2.704356E+00
         3   7 -1.175817E-02 -1.060948E+00  9.545393E+00 -4.531895E-02  1.683960E-01  2.342915E+00
         3   8 -7.661788E-02 -1.002617E+00  9.367307E+00 -4.858287E-02  1.671063E-01  1.948219E+00
         4   1  8.999499E-01  2.588220E+00  2.155926E+00  4.489630E-03  3.477443E-04  3.824588E+00
         4   2  9.230280E-01  2.472097E+00  2.248492E+00 -2.334945E-01  1.659758E-02  4.111789E+00
         4   3 -3.145952E-01  7.446530E-01  2.106262E+00  1.132679E-01 -3.244441E-02  1.112688E+00
         4   4 -2.317823E-01  5.203573E-01  2.206675E+00  1.732534E-01 -3.808654E-02  1.190596E+00
         4   5 -3.102560E-01 -1.133015E+00  2.643145E+00 -6.114174E-04  1.918205E-02  2.704356E+00
         4   6 -3.018702E-01 -1.179612E+00  2.716789E+00  6.416405E-02  4.149315E-02  3.096879E+00
         4   7 -7.661788E-02 -1.002617E+00  9.367307E+00  4.858287E-02 -1.671063E-01  1.948219E+00
         4   8 -1.175817E-02 -1.060948E+00  9.545393E+00  4.531895E-02 -1.683960E-01  2.342915E+00
         5   1 -1.224483E-01 -7.379441E-01 -1.420169E+01  6.141138E-02 -1.315299E-01  8.752182E-01
         5   2 -1.439710E-01 -7.026048E-01 -1.422217E+01  1.089560E-03 -1.647015E-01  7.151540E-01
         5   3 -6.978970E-02 -3.275190E-01 -3.628584E+00 -2.171340E-02  6.834914E-03  4.535203E+00
         5   4 -1.044050E-01 -3.463460E-01 -3.708842E+00 -1.135257E-02  4.890217E-03  3.890991E+00
         5   5  4.524701E-02 -9.049573E-02 -2.102700E+01 -6.767779E-04 -1.048216E-01  1.866128E+00
         5   6  4.540627E-02 -7.981807E-04 -2.107348E+01 -5.309119E-03 -1.219837E-01  1.586039E+00
         5   7  1.003435E-01  1.658981E-01 -5.412187E+00  7.941037E-02  2.056652E-02  3.350532E+00
         5   8  1.219992E-01  2.609571E-01 -5.363024E+00 -4.007294E-02  2.505812E-02  3.034912E+00
         6   1 -1.439710E-01 -7.026048E-01 -1.422217E+01 -1.089560E-03  1.647015E-01  7.151540E-01
         6   2 -1.224483E-01 -7.379441E-01 -1.420169E+01 -6.141138E-02  1.315299E-01  8.752182E-01
         6   3 -1.044050E-01 -3.463460E-01 -3.708842E+00  1.135257E-02 -4.890217E-03  3.890991E+00
         6   4 -6.978970E-02 -3.275190E-01 -3.628584E+00  2.171340E-02 -6.834914E-03  4.535203E+00
         6   5  4.540627E-02 -7.981807E-04 -2.107348E+01  5.309119E-03  1.219837E-01  1.586039E+00
         6   6  4.524701E-02 -9.049573E-02 -2.102700E+01  6.767779E-04  1.048216E-01  1.866128E+00
         6   7  1.219992E-01  2.609571E-01 -5.363024E+00  4.007294E-02 -2.505812E-02  3.034912E+00
         6   8  1.003435E-01  1.658981E-01 -5.412187E+00 -7.941037E-02 -2.056652E-02  3.350532E+00
         7   1  1.144171E-01  3.839774E-01  3.940272E+00  7.036302E-03 -2.362312E-02  4.506349E+00
         7   2  1.341210E-01  3.887737E-01  3.965888E+00 -1.926121E-03 -1.826906E-02  3.876464E+00
         7   3  3.964912E-02  7.140464E-01  1.440969E+01  1.138539E-01  1.936522E-01  8.433574E-01
         7   4  1.100392E-01  7.383606E-01  1.451417E+01  2.388169E-02  1.822050E-01  7.571632E-01
         7   5 -1.426151E-02 -5.194126E-03  5.609943E+00 -6.936520E-02 -1.767716E-02  3.384104E+00
         7   6 -6.088950E-02 -2.115186E-01  5.626258E+00 -3.283602E-02 -2.836145E-03  3.054924E+00
         7   7  2.406398E-02  3.149485E-01  2.142586E+01 -1.676713E-01  3.155889E-02  2.104945E+00
         7   8 -4.053855E-02 -1.175350E-01  2.128787E+01  1.183596E-01  4.783496E-02  1.618149E+00
         8   1  1.341210E-01  3.887737E-01  3.965888E+00  1.926121E-03  1.826906E-02  3.876464E+00
         8   2  1.144171E-01  3.839774E-01  3.940272E+00 -7.036302E-03  2.362312E-02  4.506349E+00
         8   3  1.100392E-01  7.383606E-01  1.451417E+01 -2.388169E-02 -1.822050E-01  7.571632E-01
         8   4  3.964912E-02  7.140464E-01  1.440969E+01 -1.138539E-01 -1.936522E-01  8.433574E-01
         8   5 -6.088950E-02 -2.115186E-01  5.626258E+00  3.283602E-02  2.836145E-03  3.054924E+00
         8   6 -1.426151E-02 -5.194126E-03  5.609943E+00  6.936520E-02  1.767716E-02  3.384104E+00
         8   7 -4.053855E-02 -1.175350E-01  2.128787E+01 -1.183596E-01 -4.783496E-02  1.618149E+00
         8   8  2.406398E-02  3.149485E-01  2.142586E+01  1.676713E-01 -3.155889E-02  2.104945E+00
         9   1 -6.764169E-02  1.747325E-01 -2.612916E+01 -1.582589E-02 -1.280316E-01  1.207122E+00
         9   2 -5.591977E-02  8.712749E-02 -2.601541E+01  1.555634E-02 -1.064107E-01  1.059627E+00
         9   3  3.814187E-02  1.952414E-01 -6.835702E+00 -2.996918E-02 -3.683970E-02  4.263328E+00
         9   4 -4.423929E-02  2.401452E-02 -6.931759E+00 -1.939130E-02 -3.144209E-03  3.607781E+00
         9   5  2.315115E-01  3.606279E-01 -3.239717E+01  1.674674E-03 -1.514164E-01  1.596818E+00
         9   6  2.061054E-01  3.076807E-01 -3.254983E+01 -3.483350E-02 -1.701708E-01  1.322765E+00
         9   7 -4.752765E-01 -8.505553E-01 -9.558454E+00 -1.222186E-01  4.215551E-02  3.190792E+00
         9   8 -2.075580E-01 -5.482474E-01 -9.193550E+00  2.629384E-01  2.693258E-02  2.963561E+00
        10   1 -5.591977E-02  8.712749E-02 -2.601541E+01 -1.555634E-02  1.064107E-01  1.059627E+00
        10   2 -6.764169E-02  1.747325E-01 -2.612916E+01  1.582589E-02  1.280316E-01  1.207122E+00
        10   3 -4.423929E-02  2.401452E-02 -6.931759E+00  1.939130E-02  3.144209E-03  3.607781E+00
        10   4  3.814187E-02  1.952414E-01 -6.835702E+00  2.996918E-02  3.683970E-02  4.263328E+00
        10   5  2.061054E-01  3.076807E-01 -3.254983E+01  3.483350E-02  1.701708E-01  1.322765E+00
        10   6  2.315115E-01  3.606279E-01 -3.239717E+01 -1.674674E-03  1.514164E-01  1.596818E+00
        10   7 -2.075580E-01 -5.482474E-01 -9.193550E+00 -2.629384E-01 -2.693258E-02  2.963561E+00
        10   8 -4.752765E-01 -8.505553E-01 -9.558454E+00  1.222186E-01 -4.215551E-02  3.190792E+00
        11   1 -9.233596E-02 -3.518541E-01  7.295248E+00  1.626946E-02  7.402682E-02  4.171529E+00
        11   2  8.476022E-03  1.791408E-02  7.290333E+00  1.460000E-02  8.390802E-03  3.632196E+00
        11   3 -2.208300E-01 -6.201180E-01  2.612564E+01  1.088185E-01  2.878729E-01  9.363330E-01
        11   4 -6.389214E-02 -1.846472E-01  2.628056E+01  1.269270E-01  1.577871E-01  1.122610E+00
        11   5  3.093955E-01  1.353495E+00  9.136223E+00  1.984431E-01 -4.446734E-02  3.736257E+00
        11   6  7.588673E-02  8.368172E-01  9.075875E+00  8.821540E-02  1.235581E-02  3.234989E+00
        11   7  7.876921E-01  5.974721E-01  3.330922E+01  8.187545E-02 -2.326321E-01  2.326385E+00
        11   8  3.496431E-01  6.510036E-01  3.326603E+01 -9.661690E-01  2.360315E-01  1.626909E+00
        12   1  8.476022E-03  1.791408E-02  7.290333E+00 -1.460000E-02 -8.390802E-03  3.632196E+00
        12   2 -9.233596E-02 -3.518541E-01  7.295248E+00 -1.626946E-02 -7.402682E-02  4.171529E+00
        12   3 -6.389214E-02 -1.846472E-01  2.628056E+01 -1.269270E-01 -1.577871E-01  1.122610E+00
        12   4 -2.208300E-01 -6.201180E-01  2.612564E+01 -1.088185E-01 -2.878729E-01  9.363330E-01
        12   5  7.588673E-02  8.368172E-01  9.075875E+00 -8.821540E-02 -1.235581E-02  3.234989E+00
        12   6  3.093955E-01  1.353495E+00  9.136223E+00 -1.984431E-01  4.446734E-02  3.736257E+00
        12   7  3.496431E-01  6.510036E-01  3.326603E+01  9.661690E-01 -2.360315E-01  1.626909E+00
        12   8  7.876921E-01  5.974721E-01  3.330922E+01 -8.187545E-02  2.326321E-01  2.326385E+00
        13   1 -1.758851E-01 -5.566273E-01 -3.879265E+01  8.935881E-03 -2.239442E-01  1.849028E+00
        13   2 -1.433025E-01 -4.985016E-01 -3.881303E+01 -5.437971E-02 -1.819054E-01  1.533099E+00
        13   3  5.506608E-01  4.175634E-01 -8.309854E+00 -3.741313E-02  6.041956E-02  5.036593E+00
        13   4  4.499192E-01  1.524734E-01 -8.931116E+00 -1.060339E-01 -4.785664E-02  4.115258E+00
        13   5 -7.970157E-02  3.111329E-01 -4.422281E+01 -4.234993E-02 -4.082082E-02  1.180086E+00
        13   6 -1.071741E-01  5.424156E-01 -4.437199E+01  3.160239E-01 -2.494366E-02  9.148846E-01
        13   7 -2.423140E-01  2.006820E+00 -1.234719E+01  3.129407E-01 -6.407564E-02  1.510769E+00
        13   8  5.832461E-02  1.639348E+00 -1.218479E+01 -9.427869E-01 -1.109453E-01  1.492554E+00
        14   1 -1.433025E-01 -4.985016E-01 -3.881303E+01  5.437971E-02  1.819054E-01  1.533099E+00
        14   2 -1.758851E-01 -5.566273E-01 -3.879265E+01 -8.935881E-03  2.239442E-01  1.849028E+00
        14   3  4.499192E-01  1.524734E-01 -8.931116E+00  1.060339E-01  4.785664E-02  4.115258E+00
        14   4  5.506608E-01  4.175634E-01 -8.309854E+00  3.741313E-02 -6.041956E-02  5.036593E+00
        14   5 -1.071741E-01  5.424156E-01 -4.437199E+01 -3.160239E-01  2.494366E-02  9.148846E-01
        14   6 -7.970157E-02  3.111329E-01 -4.422281E+01  4.234993E-02  4.082082E-02  1.180086E+00
        14   7  5.832461E-02  1.639348E+00 -1.218479E+01  9.427869E-01  1.109453E-01  1.492554E+00
        14   8 -2.423140E-01  2.006820E+00 -1.234719E+01 -3.129407E-01  6.407564E-02  1.510769E+00
        15   1 -6.085027E-01 -1.974328E+00  1.055034E+01 -1.114028E-01 -2.814071E-01  4.238347E+00
        15   2 -2.833348E-01 -1.197133E+00  1.035407E+01 -3.208920E-02 -1.914226E-01  3.400745E+00
        15   3 -7.676899E-01 -2.180542E+00  3.766222E+01  2.939782E-01  3.860154E-01 -3.036996E-01
        15   4 -6.330313E-01 -1.339831E+00  3.737738E+01  3.569715E-01  1.502333E-01  1.332292E-01
        15   5  1.513651E+00  5.511590E+00  1.197638E+01 -8.372860E-01 -2.056516E-01  2.456826E+00
        15   6  1.291844E+00  2.545500E+00  1.160365E+01 -6.566582E-01 -2.168855E-01  1.732947E+00
        15   7 -8.176597E-01  8.538658E+00  4.566651E+01 -1.677031E+00  9.538100E-01  6.916352E+00
        15   8 -9.654217E-01  3.704727E+00  4.498769E+01  1.963224E+00  8.486821E-02  3.793469E+00
        16   1 -2.833348E-01 -1.197133E+00  1.035407E+01  3.208920E-02  1.914226E-01  3.400745E+00
        16   2 -6.085027E-01 -1.974328E+00  1.055034E+01  1.114028E-01  2.814071E-01  4.238347E+00
        16   3 -6.330313E-01 -1.339831E+00  3.737738E+01 -3.569715E-01 -1.502333E-01  1.332292E-01
        16   4 -7.676899E-01 -2.180542E+00  3.766222E+01 -2.939782E-01 -3.860154E-01 -3.036996E-01
        16   5  1.291844E+00  2.545500E+00  1.160365E+01  6.566582E-01  2.168855E-01  1.732947E+00
        16   6  1.513651E+00  5.511590E+00  1.197638E+01  8.372860E-01  2.056516E-01  2.456826E+00
        16   7 -9.654217E-01  3.704727E+00  4.498769E+01 -1.963224E+00 -8.486821E-02  3.793469E+00
        16   8 -8.176597E-01  8.538658E+00  4.566651E+01  1.677031E+00 -9.538100E-01  6.916352E+00
        17   1 -7.970157E-02  3.111329E-01 -4.422281E+01 -4.234993E-02  4.082082E-02 -1.180086E+00
        17   2 -1.071741E-01  5.424156E-01 -4.437199E+01  3.160239E-01  2.494366E-02 -9.148846E-01
        17   3 -2.423140E-01  2.006820E+00 -1.234719E+01  3.129407E-01  6.407564E-02 -1.510769E+00
        17   4  5.832461E-02  1.639348E+00 -1.218479E+01 -9.427869E-01  1.109453E-01 -1.492554E+00
        17   5 -1.758851E-01 -5.566273E-01 -3.879265E+01  8.935881E-03  2.239442E-01 -1.849028E+00
        17   6 -1.433025E-01 -4.985016E-01 -3.881303E+01 -5.437971E-02  1.819054E-01 -1.533099E+00
        17   7  5.506608E-01  4.175634E-01 -8.309854E+00 -3.741313E-02 -6.041956E-02 -5.036593E+00
        17   8  4.499192E-01  1.524734E-01 -8.931116E+00 -1.060339E-01  4.785664E-02 -4.115258E+00
        18   1 -1.071741E-01  5.424156E-01 -4.437199E+01 -3.160239E-01 -2.494366E-02 -9.148846E-01
        18   2 -7.970157E-02  3.111329E-01 -4.422281E+01  4.234993E-02 -4.082082E-02 -1.180086E+00
        18   3  5.832461E-02  1.639348E+00 -1.218479E+01  9.427869E-01 -1.109453E-01 -1.492554E+00
        18   4 -2.423140E-01  2.006820E+00 -1.234719E+01 -3.129407E-01 -6.407564E-02 -1.510769E+00
        18   5 -1.433025E-01 -4.985016E-01 -3.881303E+01  5.437971E-02 -1.819054E-01 -1.533099E+00
        18   6 -1.758851E-01 -5.566273E-01 -3.879265E+01 -8.935881E-03 -2.239442E-01 -1.849028E+00
        18   7  4.499192E-01  1.524734E-01 -8.931116E+00  1.060339E-01 -4.785664E-02 -4.115258E+00
        18   8  5.506608E-01  4.175634E-01 -8.309854E+00  3.741313E-02  6.041956E-02 -5.036593E+00
        19   1  1.513651E+00  5.511590E+00  1.197638E+01 -8.372860E-01  2.056516E-01 -2.456826E+00
        19   2  1.291844E+00  2.545500E+00  1.160365E+01 -6.566582E-01  2.168855E-01 -1.732947E+00
        19   3 -8.176597E-01  8.538658E+00  4.566651E+01 -1.677031E+00 -9.538100E-01 -6.916352E+00
        19   4 -9.654217E-01  3.704727E+00  4.498769E+01  1.963224E+00 -8.486821E-02 -3.793469E+00
        19   5 -6.085027E-01 -1.974328E+00  1.055034E+01 -1.114028E-01  2.814071E-01 -4.238347E+00
        19   6 -2.833348E-01 -1.197133E+00  1.035407E+01 -3.208920E-02  1.914226E-01 -3.400745E+00
        19   7 -7.676899E-01 -2.180542E+00  3.766222E+01  2.939782E-01 -3.860154E-01  3.036996E-01
        19   8 -6.330313E-01 -1.339831E+00  3.737738E+01  3.569715E-01 -1.502333E-01 -1.332292E-01
        20   1  1.291844E+00  2.545500E+00  1.160365E+01  6.566582E-01 -2.168855E-01 -1.732947E+00
        20   2  1.513651E+00  5.511590E+00  1.197638E+01  8.372860E-01 -2.056516E-01 -2.456826E+00
        20   3 -9.654217E-01  3.704727E+00  4.498769E+01 -1.963224E+00  8.486821E-02 -3.793469E+00
        20   4 -8.176597E-01  8.538658E+00  4.566651E+01  1.677031E+00  9.538100E-01 -6.916352E+00
        20   5 -2.833348E-01 -1.197133E+00  1.035407E+01  3.208920E-02 -1.914226E-01 -3.400745E+00
        20   6 -6.085027E-01 -1.974328E+00  1.055034E+01  1.114028E-01 -2.814071E-01 -4.238347E+00
        20   7 -6.330313E-01 -1.339831E+00  3.737738E+01 -3.569715E-01  1.502333E-01 -1.332292E-01
        20   8 -7.676899E-01 -2.180542E+00  3.766222E+01 -2.939782E-01  3.860154E-01  3.036996E-01