
                        S T E P       1


                                INCREMENT     1


 displacements (vx,vy,vz) for set NALL and time  0.1000000E+01

         1  0.000000E+00  0.000000E+00  0.000000E+00
         2 -4.432439E-03  0.000000E+00  0.000000E+00
         3 -4.432439E-03 -4.432439E-03  0.000000E+00
         4 -1.339244E-17 -4.432439E-03  0.000000E+00
         5  5.014619E-10  5.014632E-10  8.462491E-02
         6 -4.432439E-03  5.014633E-10  8.462491E-02
         7 -4.432439E-03 -4.432439E-03  8.462491E-02
         8  5.014619E-10 -4.432439E-03  8.462491E-02
         9 -1.108110E-03  8.104769E-15  0.000000E+00
        10 -2.216219E-03  3.839050E-14  0.000000E+00
        11 -3.324329E-03  8.086366E-15  0.000000E+00
        12 -4.432439E-03 -1.108110E-03  0.000000E+00
        13 -4.432439E-03 -2.216219E-03  0.000000E+00
        14 -4.432439E-03 -3.324329E-03  0.000000E+00
        15 -3.324329E-03 -4.432439E-03  0.000000E+00
        16 -2.216219E-03 -4.432439E-03  0.000000E+00
        17 -1.108110E-03 -4.432439E-03  0.000000E+00
        18  8.073871E-15 -3.324329E-03  0.000000E+00
        19  3.835618E-14 -2.216219E-03  0.000000E+00
        20  8.063637E-15 -1.108110E-03  0.000000E+00
        21 -1.108109E-03  5.031851E-10  8.462491E-02
        22 -2.216219E-03  4.702695E-10  8.462491E-02
        23 -3.324329E-03  5.031851E-10  8.462491E-02
        24 -4.432439E-03 -1.108109E-03  8.462491E-02
        25 -4.432439E-03 -2.216219E-03  8.462491E-02
        26 -4.432439E-03 -3.324329E-03  8.462491E-02
        27 -3.324329E-03 -4.432439E-03  8.462491E-02
        28 -2.216219E-03 -4.432439E-03  8.462491E-02
        29 -1.108109E-03 -4.432439E-03  8.462491E-02
        30  5.031837E-10 -3.324329E-03  8.462491E-02
        31  4.702680E-10 -2.216219E-03  8.462491E-02
        32  5.031837E-10 -1.108109E-03  8.462491E-02
        33 -4.432439E-03 -6.304308E-14  5.289057E-03
        34 -4.432439E-03 -1.620851E-13  1.057811E-02
        35 -4.432439E-03 -1.959936E-14  1.586717E-02
        36 -4.432439E-03  1.100146E-13  2.115623E-02
        37 -4.432439E-03  2.595087E-14  2.644528E-02
        38 -4.432439E-03 -7.784105E-13  3.173434E-02
        39 -4.432439E-03 -3.956823E-13  3.702340E-02
        40 -4.432439E-03  7.228998E-13  4.231246E-02
        41 -4.432439E-03  2.760386E-12  4.760151E-02
        42 -4.432439E-03 -6.009636E-12  5.289057E-02
        43 -4.432439E-03 -7.876426E-12  5.817963E-02
        44 -4.432439E-03  1.209986E-12  6.346868E-02
        45 -4.432439E-03  4.662407E-11  6.875774E-02
        46 -4.432439E-03 -4.685213E-11  7.404680E-02
        47 -4.432439E-03 -1.133350E-10  7.933585E-02
        48 -1.133363E-10 -1.133350E-10  7.933585E-02
        49 -4.685321E-11 -4.685210E-11  7.404680E-02
        50  4.662304E-11  4.662408E-11  6.875774E-02
        51  1.209101E-12  1.210034E-12  6.346868E-02
        52 -7.877235E-12 -7.876373E-12  5.817963E-02
        53 -6.010399E-12 -6.009579E-12  5.289057E-02
        54  2.759682E-12  2.760463E-12  4.760151E-02
        55  7.222216E-13  7.229721E-13  4.231246E-02
        56 -3.962788E-13 -3.956321E-13  3.702340E-02
        57 -7.788556E-13 -7.783201E-13  3.173434E-02
        58  2.566308E-14  2.600188E-14  2.644528E-02
        59  1.098604E-13  1.100773E-13  2.115623E-02
        60 -1.965903E-14 -1.948738E-14  1.586717E-02
        61 -1.621472E-13 -1.620277E-13  1.057811E-02
        62 -6.306305E-14 -6.300584E-14  5.289057E-03
        63 -4.432439E-03 -4.432439E-03  5.289057E-03
        64 -4.432439E-03 -4.432439E-03  1.057811E-02
        65 -4.432439E-03 -4.432439E-03  1.586717E-02
        66 -4.432439E-03 -4.432439E-03  2.115623E-02
        67 -4.432439E-03 -4.432439E-03  2.644528E-02
        68 -4.432439E-03 -4.432439E-03  3.173434E-02
        69 -4.432439E-03 -4.432439E-03  3.702340E-02
        70 -4.432439E-03 -4.432439E-03  4.231246E-02
        71 -4.432439E-03 -4.432439E-03  4.760151E-02
        72 -4.432439E-03 -4.432439E-03  5.289057E-02
        73 -4.432439E-03 -4.432439E-03  5.817963E-02
        74 -4.432439E-03 -4.432439E-03  6.346868E-02
        75 -4.432439E-03 -4.432439E-03  6.875774E-02
        76 -4.432439E-03 -4.432439E-03  7.404680E-02
        77 -4.432439E-03 -4.432439E-03  7.933585E-02
        78 -6.303615E-14 -4.432439E-03  5.289057E-03
        79 -1.621214E-13 -4.432439E-03  1.057811E-02
        80 -1.964687E-14 -4.432439E-03  1.586717E-02
        81  1.098664E-13 -4.432439E-03  2.115623E-02
        82  2.568788E-14 -4.432439E-03  2.644528E-02
        83 -7.788092E-13 -4.432439E-03  3.173434E-02
        84 -3.962152E-13 -4.432439E-03  3.702340E-02
        85  7.222457E-13 -4.432439E-03  4.231246E-02
        86  2.759737E-12 -4.432439E-03  4.760151E-02
        87 -6.010321E-12 -4.432439E-03  5.289057E-02
        88 -7.877220E-12 -4.432439E-03  5.817963E-02
        89  1.209154E-12 -4.432439E-03  6.346868E-02
        90  4.662311E-11 -4.432439E-03  6.875774E-02
        91 -4.685324E-11 -4.432439E-03  7.404680E-02
        92 -1.133362E-10 -4.432439E-03  7.933585E-02
        93 -2.216219E-03 -1.108110E-03  0.000000E+00
        94 -1.108110E-03 -2.216219E-03  0.000000E+00
        95 -2.216219E-03 -2.216219E-03  0.000000E+00
        96 -3.324329E-03 -2.216219E-03  0.000000E+00
        97 -2.216219E-03 -3.324329E-03  0.000000E+00
        98 -2.216219E-03 -1.108110E-03  8.462491E-02
        99 -1.108110E-03 -2.216219E-03  8.462491E-02
       100 -2.216219E-03 -2.216219E-03  8.462491E-02
       101 -3.324329E-03 -2.216219E-03  8.462491E-02
       102 -2.216219E-03 -3.324329E-03  8.462491E-02
       103 -2.216219E-03 -5.649313E-14  5.289057E-03
       104 -1.108110E-03 -1.515524E-13  1.057811E-02
       105 -2.216219E-03 -1.700708E-13  1.057811E-02
       106 -3.324329E-03 -1.515704E-13  1.057811E-02
       107 -2.216219E-03 -8.744646E-14  1.586717E-02
       108 -1.108110E-03  1.601455E-13  2.115623E-02
       109 -2.216219E-03  2.623736E-13  2.115623E-02
       110 -3.324329E-03  1.601303E-13  2.115623E-02
       111 -2.216219E-03  9.047249E-14  2.644528E-02
       112 -1.108110E-03 -6.458592E-13  3.173434E-02
       113 -2.216219E-03 -6.036951E-13  3.173434E-02
       114 -3.324329E-03 -6.458801E-13  3.173434E-02
       115 -2.216219E-03 -9.305744E-13  3.702340E-02
       116 -1.108110E-03  1.348227E-12  4.231246E-02
       117 -2.216219E-03  2.105199E-12  4.231246E-02
       118 -3.324329E-03  1.348204E-12  4.231246E-02
       119 -2.216219E-03  2.619282E-12  4.760151E-02
       120 -1.108110E-03 -4.240900E-12  5.289057E-02
       121 -2.216219E-03 -2.485000E-12  5.289057E-02
       122 -3.324329E-03 -4.240918E-12  5.289057E-02
       123 -2.216219E-03 -1.220749E-11  5.817963E-02
       124 -1.108110E-03  8.713643E-12  6.346868E-02
       125 -2.216219E-03  1.556812E-11  6.346868E-02
       126 -3.324329E-03  8.713630E-12  6.346868E-02
       127 -2.216219E-03  3.887704E-11  6.875774E-02
       128 -1.108110E-03 -1.449880E-11  7.404680E-02
       129 -2.216219E-03  2.183186E-11  7.404680E-02
       130 -3.324329E-03 -1.449882E-11  7.404680E-02
       131 -2.216219E-03 -2.065673E-10  7.933585E-02
       132 -4.432439E-03 -2.216219E-03  5.289057E-03
       133 -4.432439E-03 -1.108110E-03  1.057811E-02
       134 -4.432439E-03 -2.216219E-03  1.057811E-02
       135 -4.432439E-03 -3.324329E-03  1.057811E-02
       136 -4.432439E-03 -2.216219E-03  1.586717E-02
       137 -4.432439E-03 -1.108110E-03  2.115623E-02
       138 -4.432439E-03 -2.216219E-03  2.115623E-02
       139 -4.432439E-03 -3.324329E-03  2.115623E-02
       140 -4.432439E-03 -2.216219E-03  2.644528E-02
       141 -4.432439E-03 -1.108110E-03  3.173434E-02
       142 -4.432439E-03 -2.216219E-03  3.173434E-02
       143 -4.432439E-03 -3.324329E-03  3.173434E-02
       144 -4.432439E-03 -2.216219E-03  3.702340E-02
       145 -4.432439E-03 -1.108110E-03  4.231246E-02
       146 -4.432439E-03 -2.216219E-03  4.231246E-02
       147 -4.432439E-03 -3.324329E-03  4.231246E-02
       148 -4.432439E-03 -2.216219E-03  4.760151E-02
       149 -4.432439E-03 -1.108110E-03  5.289057E-02
       150 -4.432439E-03 -2.216219E-03  5.289057E-02
       151 -4.432439E-03 -3.324329E-03  5.289057E-02
       152 -4.432439E-03 -2.216219E-03  5.817963E-02
       153 -4.432439E-03 -1.108110E-03  6.346868E-02
       154 -4.432439E-03 -2.216219E-03  6.346868E-02
       155 -4.432439E-03 -3.324329E-03  6.346868E-02
       156 -4.432439E-03 -2.216219E-03  6.875774E-02
       157 -4.432439E-03 -1.108110E-03  7.404680E-02
       158 -4.432439E-03 -2.216219E-03  7.404680E-02
       159 -4.432439E-03 -3.324329E-03  7.404680E-02
       160 -4.432438E-03 -2.216219E-03  7.933585E-02
       161 -2.216219E-03 -4.432439E-03  5.289057E-03
       162 -3.324329E-03 -4.432439E-03  1.057811E-02
       163 -2.216219E-03 -4.432439E-03  1.057811E-02
       164 -1.108110E-03 -4.432439E-03  1.057811E-02
       165 -2.216219E-03 -4.432439E-03  1.586717E-02
       166 -3.324329E-03 -4.432439E-03  2.115623E-02
       167 -2.216219E-03 -4.432439E-03  2.115623E-02
       168 -1.108110E-03 -4.432439E-03  2.115623E-02
       169 -2.216219E-03 -4.432439E-03  2.644528E-02
       170 -3.324329E-03 -4.432439E-03  3.173434E-02
       171 -2.216219E-03 -4.432439E-03  3.173434E-02
       172 -1.108110E-03 -4.432439E-03  3.173434E-02
       173 -2.216219E-03 -4.432439E-03  3.702340E-02
       174 -3.324329E-03 -4.432439E-03  4.231246E-02
       175 -2.216219E-03 -4.432439E-03  4.231246E-02
       176 -1.108110E-03 -4.432439E-03  4.231246E-02
       177 -2.216219E-03 -4.432439E-03  4.760151E-02
       178 -3.324329E-03 -4.432439E-03  5.289057E-02
       179 -2.216219E-03 -4.432439E-03  5.289057E-02
       180 -1.108110E-03 -4.432439E-03  5.289057E-02
       181 -2.216219E-03 -4.432439E-03  5.817963E-02
       182 -3.324329E-03 -4.432439E-03  6.346868E-02
       183 -2.216219E-03 -4.432439E-03  6.346868E-02
       184 -1.108110E-03 -4.432439E-03  6.346868E-02
       185 -2.216219E-03 -4.432439E-03  6.875774E-02
       186 -3.324329E-03 -4.432439E-03  7.404680E-02
       187 -2.216219E-03 -4.432439E-03  7.404680E-02
       188 -1.108110E-03 -4.432439E-03  7.404680E-02
       189 -2.216219E-03 -4.432438E-03  7.933585E-02
       190 -5.653582E-14 -2.216219E-03  5.289057E-03
       191 -1.516334E-13 -3.324329E-03  1.057811E-02
       192 -1.701293E-13 -2.216219E-03  1.057811E-02
       193 -1.516388E-13 -1.108110E-03  1.057811E-02
       194 -8.760539E-14 -2.216219E-03  1.586717E-02
       195  1.599354E-13 -3.324329E-03  2.115623E-02
       196  2.621537E-13 -2.216219E-03  2.115623E-02
       197  1.599259E-13 -1.108110E-03  2.115623E-02
       198  9.013840E-14 -2.216219E-03  2.644528E-02
       199 -6.463277E-13 -3.324329E-03  3.173434E-02
       200 -6.041460E-13 -2.216219E-03  3.173434E-02
       201 -6.463312E-13 -1.108110E-03  3.173434E-02
       202 -9.311469E-13 -2.216219E-03  3.702340E-02
       203  1.347529E-12 -3.324329E-03  4.231246E-02
       204  2.104504E-12 -2.216219E-03  4.231246E-02
       205  1.347504E-12 -1.108110E-03  4.231246E-02
       206  2.618531E-12 -2.216219E-03  4.760151E-02
       207 -4.241652E-12 -3.324329E-03  5.289057E-02
       208 -2.485776E-12 -2.216219E-03  5.289057E-02
       209 -4.241693E-12 -1.108110E-03  5.289057E-02
       210 -1.220827E-11 -2.216219E-03  5.817963E-02
       211  8.712754E-12 -3.324329E-03  6.346868E-02
       212  1.556722E-11 -2.216219E-03  6.346868E-02
       213  8.712745E-12 -1.108110E-03  6.346868E-02
       214  3.887606E-11 -2.216219E-03  6.875774E-02
       215 -1.449993E-11 -3.324329E-03  7.404680E-02
       216  2.183074E-11 -2.216219E-03  7.404680E-02
       217 -1.449991E-11 -1.108110E-03  7.404680E-02
       218 -2.065685E-10 -2.216219E-03  7.933585E-02
       219 -2.216219E-03 -2.216219E-03  5.289057E-03
       220 -2.216219E-03 -1.108110E-03  1.057811E-02
       221 -1.108110E-03 -2.216219E-03  1.057811E-02
       222 -2.216219E-03 -2.216219E-03  1.057811E-02
       223 -3.324329E-03 -2.216219E-03  1.057811E-02
       224 -2.216219E-03 -3.324329E-03  1.057811E-02
       225 -2.216219E-03 -2.216219E-03  1.586717E-02
       226 -2.216219E-03 -1.108110E-03  2.115623E-02
       227 -1.108110E-03 -2.216219E-03  2.115623E-02
       228 -2.216219E-03 -2.216219E-03  2.115623E-02
       229 -3.324329E-03 -2.216219E-03  2.115623E-02
       230 -2.216219E-03 -3.324329E-03  2.115623E-02
       231 -2.216219E-03 -2.216219E-03  2.644528E-02
       232 -2.216219E-03 -1.108110E-03  3.173434E-02
       233 -1.108110E-03 -2.216219E-03  3.173434E-02
       234 -2.216219E-03 -2.216219E-03  3.173434E-02
       235 -3.324329E-03 -2.216219E-03  3.173434E-02
       236 -2.216219E-03 -3.324329E-03  3.173434E-02
       237 -2.216219E-03 -2.216219E-03  3.702340E-02
       238 -2.216219E-03 -1.108110E-03  4.231246E-02
       239 -1.108110E-03 -2.216219E-03  4.231246E-02
       240 -2.216219E-03 -2.216219E-03  4.231246E-02
       241 -3.324329E-03 -2.216219E-03  4.231246E-02
       242 -2.216219E-03 -3.324329E-03  4.231246E-02
       243 -2.216219E-03 -2.216219E-03  4.760151E-02
       244 -2.216219E-03 -1.108110E-03  5.289057E-02
       245 -1.108110E-03 -2.216219E-03  5.289057E-02
       246 -2.216219E-03 -2.216219E-03  5.289057E-02
       247 -3.324329E-03 -2.216219E-03  5.289057E-02
       248 -2.216219E-03 -3.324329E-03  5.289057E-02
       249 -2.216219E-03 -2.216219E-03  5.817963E-02
       250 -2.216219E-03 -1.108110E-03  6.346868E-02
       251 -1.108110E-03 -2.216219E-03  6.346868E-02
       252 -2.216219E-03 -2.216219E-03  6.346868E-02
       253 -3.324329E-03 -2.216219E-03  6.346868E-02
       254 -2.216219E-03 -3.324329E-03  6.346868E-02
       255 -2.216219E-03 -2.216219E-03  6.875774E-02
       256 -2.216219E-03 -1.108110E-03  7.404680E-02
       257 -1.108110E-03 -2.216219E-03  7.404680E-02
       258 -2.216219E-03 -2.216219E-03  7.404680E-02
       259 -3.324329E-03 -2.216219E-03  7.404680E-02
       260 -2.216219E-03 -3.324329E-03  7.404680E-02
       261 -2.216219E-03 -2.216219E-03  7.933585E-02

 stresses (elem, integ.pnt.,sxx,syy,szz,sxy,sxz,syz) for set EALL and time  0.1000000E+01

         1   1  1.750716E-04  1.750716E-04  9.725474E+02 -8.986874E-10  4.939479E-09  4.940641E-09
         1   2  1.750551E-04  1.750660E-04  9.725474E+02  9.177806E-11  5.054683E-09 -1.323449E-10
         1   3  1.750661E-04  1.750551E-04  9.725474E+02  9.231004E-11 -1.326981E-10  5.054183E-09
         1   4  1.750656E-04  1.750656E-04  9.725474E+02 -8.986311E-10  8.791760E-10  8.787243E-10
         1   5  1.750415E-04  1.750415E-04  9.725474E+02  5.337729E-09  3.487094E-09  3.487450E-09
         1   6  1.750910E-04  1.750702E-04  9.725474E+02  2.535461E-09 -7.261401E-10  1.040420E-09
         1   7  1.750702E-04  1.750910E-04  9.725474E+02  2.536912E-09  1.041293E-09 -7.253681E-10
         1   8  1.750756E-04  1.750756E-04  9.725474E+02  2.895298E-09 -2.233611E-09 -2.233400E-09
         2   1  1.750551E-04  1.750660E-04  9.725474E+02 -9.178070E-11 -5.053281E-09 -1.323505E-10
         2   2  1.750716E-04  1.750716E-04  9.725474E+02  9.023514E-10 -4.940309E-09  4.939815E-09
         2   3  1.750656E-04  1.750656E-04  9.725474E+02  8.987156E-10 -8.783058E-10  8.789621E-10
         2   4  1.750660E-04  1.750551E-04  9.725474E+02 -9.292966E-11  1.318494E-10  5.055109E-09
         2   5  1.750909E-04  1.750701E-04  9.725474E+02 -2.534080E-09  7.252491E-10  1.040289E-09
         2   6  1.750415E-04  1.750415E-04  9.725474E+02 -5.337757E-09 -3.487005E-09  3.488128E-09
         2   7  1.750756E-04  1.750756E-04  9.725474E+02 -2.895382E-09  2.233093E-09 -2.233722E-09
         2   8  1.750702E-04  1.750910E-04  9.725474E+02 -2.535355E-09 -1.039784E-09 -7.252382E-10
         3   1  1.750661E-04  1.750551E-04  9.725474E+02 -9.220875E-11 -1.327831E-10 -5.054552E-09
         3   2  1.750656E-04  1.750656E-04  9.725474E+02  8.986311E-10  8.782871E-10 -8.790320E-10
         3   3  1.750716E-04  1.750716E-04  9.725474E+02  8.986311E-10  4.940115E-09 -4.939403E-09
         3   4  1.750551E-04  1.750661E-04  9.725474E+02 -9.307014E-11  5.053293E-09  1.315821E-10
         3   5  1.750702E-04  1.750910E-04  9.725474E+02 -2.534855E-09  1.040248E-09  7.258417E-10
         3   6  1.750756E-04  1.750756E-04  9.725474E+02 -2.895326E-09 -2.233431E-09  2.233311E-09
         3   7  1.750415E-04  1.750415E-04  9.725474E+02 -5.341252E-09  3.487439E-09 -3.487239E-09
         3   8  1.750910E-04  1.750702E-04  9.725474E+02 -2.534679E-09 -7.259970E-10 -1.040782E-09
         4   1  1.750656E-04  1.750656E-04  9.725474E+02 -8.986311E-10 -8.784038E-10 -8.786399E-10
         4   2  1.750660E-04  1.750551E-04  9.725474E+02  9.172654E-11  1.320323E-10 -5.052925E-09
         4   3  1.750551E-04  1.750661E-04  9.725474E+02  9.288078E-11 -5.053800E-09  1.318250E-10
         4   4  1.750716E-04  1.750716E-04  9.725474E+02 -9.023232E-10 -4.939290E-09 -4.940422E-09
         4   5  1.750756E-04  1.750756E-04  9.725474E+02  2.895241E-09  2.232885E-09  2.232529E-09
         4   6  1.750702E-04  1.750910E-04  9.725474E+02  2.536461E-09 -1.039763E-09  7.254852E-10
         4   7  1.750910E-04  1.750702E-04  9.725474E+02  2.536010E-09  7.260481E-10 -1.040243E-09
         4   8  1.750415E-04  1.750415E-04  9.725474E+02  5.337672E-09 -3.488465E-09 -3.487407E-09
         5   1  1.750782E-04  1.750782E-04  9.725474E+02 -3.688942E-09 -9.633616E-09 -9.633350E-09
         5   2  1.750757E-04  1.750676E-04  9.725474E+02 -3.066913E-09 -1.248942E-08 -2.674936E-09
         5   3  1.750676E-04  1.750757E-04  9.725474E+02 -3.069731E-09 -2.676972E-09 -1.248976E-08
         5   4  1.750604E-04  1.750604E-04  9.725474E+02 -3.840969E-10 -4.213684E-09 -4.215093E-09
         5   5  1.751353E-04  1.751353E-04  9.725474E+02 -9.936209E-09 -1.447643E-08 -1.447807E-08
         5   6  1.750105E-04  1.750507E-04  9.725474E+02 -5.194545E-09  1.160220E-08 -3.365517E-09
         5   7  1.750507E-04  1.750105E-04  9.725474E+02 -5.193981E-09 -3.364324E-09  1.160133E-08
         5   8  1.750469E-04  1.750469E-04  9.725474E+02 -6.544387E-09  1.348164E-08  1.348287E-08
         6   1  1.750757E-04  1.750675E-04  9.725474E+02  3.067984E-09  1.248909E-08 -2.675088E-09
         6   2  1.750782E-04  1.750782E-04  9.725474E+02  3.685363E-09  9.632636E-09 -9.634074E-09
         6   3  1.750604E-04  1.750604E-04  9.725474E+02  3.840123E-10  4.215091E-09 -4.214564E-09
         6   4  1.750676E-04  1.750757E-04  9.725474E+02  3.068082E-09  2.676922E-09 -1.248847E-08
         6   5  1.750105E-04  1.750507E-04  9.725474E+02  5.194869E-09 -1.160112E-08 -3.364548E-09
         6   6  1.751354E-04  1.751354E-04  9.725474E+02  9.936068E-09  1.447787E-08 -1.447805E-08
         6   7  1.750469E-04  1.750469E-04  9.725474E+02  6.544331E-09 -1.348150E-08  1.348188E-08
         6   8  1.750507E-04  1.750105E-04  9.725474E+02  5.194531E-09  3.364564E-09  1.160029E-08
         7   1  1.750676E-04  1.750757E-04  9.725474E+02  3.067589E-09 -2.676657E-09  1.248801E-08
         7   2  1.750604E-04  1.750604E-04  9.725474E+02  3.877045E-10 -4.213908E-09  4.213282E-09
         7   3  1.750782E-04  1.750782E-04  9.725474E+02  3.685165E-09 -9.633354E-09  9.633660E-09
         7   4  1.750757E-04  1.750676E-04  9.725474E+02  3.070450E-09 -1.248973E-08  2.678133E-09
         7   5  1.750507E-04  1.750106E-04  9.725474E+02  5.193869E-09 -3.364863E-09 -1.160180E-08
         7   6  1.750469E-04  1.750469E-04  9.725474E+02  6.544274E-09  1.348110E-08 -1.348058E-08
         7   7  1.751353E-04  1.751353E-04  9.725474E+02  9.932404E-09 -1.447745E-08  1.447672E-08
         7   8  1.750105E-04  1.750507E-04  9.725474E+02  5.194763E-09  1.160145E-08  3.363867E-09
         8   1  1.750604E-04  1.750604E-04  9.725474E+02 -3.877326E-10  4.214433E-09  4.213001E-09
         8   2  1.750676E-04  1.750757E-04  9.725474E+02 -3.066828E-09  2.676857E-09  1.248857E-08
         8   3  1.750757E-04  1.750676E-04  9.725474E+02 -3.066250E-09  1.248889E-08  2.678313E-09
         8   4  1.750782E-04  1.750782E-04  9.725474E+02 -3.692493E-09  9.633272E-09  9.631872E-09
         8   5  1.750469E-04  1.750469E-04  9.725474E+02 -6.547910E-09 -1.348214E-08 -1.347968E-08
         8   6  1.750507E-04  1.750105E-04  9.725474E+02 -5.192995E-09  3.363420E-09 -1.160099E-08
         8   7  1.750105E-04  1.750507E-04  9.725474E+02 -5.192657E-09 -1.160059E-08  3.362361E-09
         8   8  1.751354E-04  1.751354E-04  9.725474E+02 -9.939760E-09  1.447786E-08  1.447709E-08
         9   1  1.750177E-04  1.750177E-04  9.725474E+02  3.395430E-09  3.056717E-08  3.056728E-08
         9   2  1.750518E-04  1.750690E-04  9.725474E+02  3.548281E-09  3.033052E-08  2.741355E-09
         9   3  1.750690E-04  1.750518E-04  9.725474E+02  3.547153E-09  2.741636E-09  3.033090E-08
         9   4  1.750762E-04  1.750762E-04  9.725474E+02 -1.377089E-10  6.461402E-09  6.460315E-09
         9   5  1.749136E-04  1.749136E-04  9.725474E+02  3.836377E-08  4.040978E-08  4.041302E-08
         9   6  1.751865E-04  1.750982E-04  9.725474E+02  2.466991E-08 -5.298103E-08  3.274763E-08
         9   7  1.750983E-04  1.751866E-04  9.725474E+02  2.466930E-08  3.274635E-08 -5.298041E-08
         9   8  1.751142E-04  1.751142E-04  9.725474E+02  2.145218E-08 -4.263136E-08 -4.263178E-08
        10   1  1.750518E-04  1.750690E-04  9.725474E+02 -3.544680E-09 -3.033016E-08  2.742878E-09
        10   2  1.750177E-04  1.750177E-04  9.725474E+02 -3.395317E-09 -3.056790E-08  3.056894E-08
        10   3  1.750762E-04  1.750762E-04  9.725474E+02  1.412602E-10 -6.460351E-09  6.461148E-09
        10   4  1.750690E-04  1.750518E-04  9.725474E+02 -3.547661E-09 -2.742767E-09  3.033021E-08
        10   5  1.751865E-04  1.750983E-04  9.725474E+02 -2.466770E-08  5.297978E-08  3.274861E-08
        10   6  1.749136E-04  1.749136E-04  9.725474E+02 -3.836724E-08 -4.041006E-08  4.041125E-08
        10   7  1.751142E-04  1.751142E-04  9.725474E+02 -2.145576E-08  4.263193E-08 -4.263195E-08
        10   8  1.750983E-04  1.751865E-04  9.725474E+02 -2.466908E-08 -3.274561E-08 -5.298038E-08
        11   1  1.750690E-04  1.750518E-04  9.725474E+02 -3.545483E-09  2.740827E-09 -3.032923E-08
        11   2  1.750762E-04  1.750762E-04  9.725474E+02  1.413447E-10  6.462360E-09 -6.460389E-09
        11   3  1.750176E-04  1.750176E-04  9.725474E+02 -3.399037E-09  3.056858E-08 -3.056764E-08
        11   4  1.750518E-04  1.750690E-04  9.725474E+02 -3.546526E-09  3.033141E-08 -2.742063E-09
        11   5  1.750983E-04  1.751865E-04  9.725474E+02 -2.466725E-08  3.274598E-08  5.297841E-08
        11   6  1.751142E-04  1.751142E-04  9.725474E+02 -2.145210E-08 -4.263388E-08  4.263170E-08
        11   7  1.749136E-04  1.749136E-04  9.725474E+02 -3.836735E-08  4.040997E-08 -4.040982E-08
        11   8  1.751865E-04  1.750982E-04  9.725474E+02 -2.466865E-08 -5.298056E-08 -3.274519E-08
        12   1  1.750762E-04  1.750762E-04  9.725474E+02 -1.413447E-10 -6.460061E-09 -6.460474E-09
        12   2  1.750690E-04  1.750518E-04  9.725474E+02  3.546005E-09 -2.742138E-09 -3.033113E-08
        12   3  1.750518E-04  1.750690E-04  9.725474E+02  3.547781E-09 -3.033050E-08 -2.742099E-09
        12   4  1.750177E-04  1.750177E-04  9.725474E+02  3.395402E-09 -3.056889E-08 -3.056757E-08
        12   5  1.751142E-04  1.751142E-04  9.725474E+02  2.145215E-08  4.263292E-08  4.262989E-08
        12   6  1.750982E-04  1.751865E-04  9.725474E+02  2.466950E-08 -3.274660E-08  5.297886E-08
        12   7  1.751865E-04  1.750983E-04  9.725474E+02  2.466695E-08  5.297924E-08 -3.274651E-08
        12   8  1.749136E-04  1.749136E-04  9.725474E+02  3.837102E-08 -4.040966E-08 -4.041193E-08
        13   1  1.751820E-04  1.751820E-04  9.725474E+02 -3.285939E-08 -5.647473E-08 -5.647670E-08
        13   2  1.751195E-04  1.751004E-04  9.725474E+02 -2.311128E-08 -6.516867E-08 -2.733270E-08
        13   3  1.751004E-04  1.751195E-04  9.725474E+02 -2.311047E-08 -2.733212E-08 -6.516826E-08
        13   4  1.750398E-04  1.750398E-04  9.725474E+02 -5.804998E-09 -1.922862E-08 -1.922878E-08
        13   5  1.754731E-04  1.754731E-04  9.725474E+02 -3.468199E-08 -2.006387E-07 -2.006410E-07
        13   6  1.747988E-04  1.749075E-04  9.725474E+02 -3.038804E-08  1.818140E-07 -8.183618E-08
        13   7  1.749075E-04  1.747988E-04  9.725474E+02 -3.038801E-08 -8.183655E-08  1.818141E-07
        13   8  1.750228E-04  1.750228E-04  9.725474E+02 -4.085322E-08  1.673424E-07  1.673417E-07
        14   1  1.751195E-04  1.751004E-04  9.725474E+02  2.311095E-08  6.517069E-08 -2.733248E-08
        14   2  1.751820E-04  1.751820E-04  9.725474E+02  3.285945E-08  5.647690E-08 -5.647673E-08
        14   3  1.750398E-04  1.750398E-04  9.725474E+02  5.805111E-09  1.922961E-08 -1.922807E-08
        14   4  1.751004E-04  1.751195E-04  9.725474E+02  2.311103E-08  2.733304E-08 -6.517138E-08
        14   5  1.747988E-04  1.749075E-04  9.725474E+02  3.038792E-08 -1.818163E-07 -8.183803E-08
        14   6  1.754731E-04  1.754731E-04  9.725474E+02  3.468580E-08  2.006361E-07 -2.006368E-07
        14   7  1.750228E-04  1.750228E-04  9.725474E+02  4.085310E-08 -1.673425E-07  1.673399E-07
        14   8  1.749075E-04  1.747988E-04  9.725474E+02  3.038645E-08  8.183728E-08  1.818143E-07
        15   1  1.751004E-04  1.751195E-04  9.725474E+02  2.311114E-08 -2.733218E-08  6.517154E-08
        15   2  1.750398E-04  1.750398E-04  9.725474E+02  5.805139E-09 -1.922996E-08  1.922977E-08
        15   3  1.751821E-04  1.751821E-04  9.725474E+02  3.285939E-08 -5.647774E-08  5.647625E-08
        15   4  1.751195E-04  1.751004E-04  9.725474E+02  2.311157E-08 -6.517139E-08  2.733068E-08
        15   5  1.749075E-04  1.747988E-04  9.725474E+02  3.038807E-08 -8.183846E-08 -1.818140E-07
        15   6  1.750228E-04  1.750228E-04  9.725474E+02  4.085680E-08  1.673424E-07 -1.673417E-07
        15   7  1.754732E-04  1.754732E-04  9.725474E+02  3.467852E-08 -2.006388E-07  2.006399E-07
        15   8  1.747988E-04  1.749075E-04  9.725474E+02  3.038848E-08  1.818154E-07  8.183816E-08
        16   1  1.750398E-04  1.750398E-04  9.725474E+02 -5.805111E-09  1.922960E-08  1.922938E-08
        16   2  1.751004E-04  1.751195E-04  9.725474E+02 -2.311080E-08  2.732982E-08  6.517360E-08
        16   3  1.751195E-04  1.751004E-04  9.725474E+02 -2.311447E-08  6.517405E-08  2.733084E-08
        16   4  1.751821E-04  1.751821E-04  9.725474E+02 -3.285945E-08  5.647637E-08  5.647641E-08
        16   5  1.750228E-04  1.750228E-04  9.725474E+02 -4.085677E-08 -1.673425E-07 -1.673417E-07
        16   6  1.749075E-04  1.747988E-04  9.725474E+02 -3.038724E-08  8.183819E-08 -1.818178E-07
        16   7  1.747988E-04  1.749075E-04  9.725474E+02 -3.038813E-08 -1.818159E-07  8.183831E-08
        16   8  1.754731E-04  1.754731E-04  9.725474E+02 -3.468216E-08  2.006372E-07  2.006395E-07
        17   1  1.746587E-04  1.746587E-04  9.725474E+02 -1.972730E-08  2.202056E-07  2.202018E-07
        17   2  1.749366E-04  1.750467E-04  9.725474E+02 -7.261169E-09  1.599906E-07  3.314221E-09
        17   3  1.750467E-04  1.749366E-04  9.725474E+02 -7.260908E-09  3.312864E-09  1.599901E-07
        17   4  1.750183E-04  1.750183E-04  9.725474E+02 -1.240739E-08 -3.208023E-09 -3.209597E-09
        17   5  1.742834E-04  1.742834E-04  9.725474E+02  2.632337E-07  5.218166E-07  5.218138E-07
        17   6  1.755355E-04  1.753457E-04  9.725474E+02  2.155328E-07 -6.794279E-07  4.593305E-07
        17   7  1.753457E-04  1.755355E-04  9.725474E+02  2.155329E-07  4.593301E-07 -6.794286E-07
        17   8  1.751576E-04  1.751576E-04  9.725474E+02  1.647390E-07 -4.641956E-07 -4.641952E-07
        18   1  1.749366E-04  1.750467E-04  9.725474E+02  7.260433E-09 -1.599908E-07  3.312559E-09
        18   2  1.746587E-04  1.746587E-04  9.725474E+02  1.972349E-08 -2.202060E-07  2.202062E-07
        18   3  1.750183E-04  1.750183E-04  9.725474E+02  1.240744E-08  3.208347E-09 -3.209087E-09
        18   4  1.750467E-04  1.749366E-04  9.725474E+02  7.260035E-09 -3.315920E-09  1.599900E-07
        18   5  1.755355E-04  1.753457E-04  9.725474E+02 -2.155302E-07  6.794297E-07  4.593281E-07
        18   6  1.742834E-04  1.742834E-04  9.725474E+02 -2.632338E-07 -5.218149E-07  5.218164E-07
        18   7  1.751576E-04  1.751576E-04  9.725474E+02 -1.647426E-07  4.641965E-07 -4.641958E-07
        18   8  1.753457E-04  1.755355E-04  9.725474E+02 -2.155295E-07 -4.593293E-07 -6.794288E-07
        19   1  1.750468E-04  1.749367E-04  9.725474E+02  7.261359E-09  3.314717E-09 -1.599891E-07
        19   2  1.750182E-04  1.750182E-04  9.725474E+02  1.240392E-08 -3.208703E-09  3.210155E-09
        19   3  1.746587E-04  1.746587E-04  9.725474E+02  1.972344E-08  2.202039E-07 -2.202030E-07
        19   4  1.749366E-04  1.750467E-04  9.725474E+02  7.259640E-09  1.599896E-07 -3.313392E-09
        19   5  1.753457E-04  1.755355E-04  9.725474E+02 -2.155303E-07  4.593284E-07  6.794273E-07
        19   6  1.751576E-04  1.751576E-04  9.725474E+02 -1.647426E-07 -4.641976E-07  4.641961E-07
        19   7  1.742834E-04  1.742834E-04  9.725474E+02 -2.632302E-07  5.218128E-07 -5.218169E-07
        19   8  1.755355E-04  1.753457E-04  9.725474E+02 -2.155310E-07 -6.794300E-07 -4.593309E-07
        20   1  1.750182E-04  1.750182E-04  9.725474E+02 -1.241105E-08  3.208878E-09  3.206103E-09
        20   2  1.750467E-04  1.749366E-04  9.725474E+02 -7.259714E-09 -3.313925E-09 -1.599911E-07
        20   3  1.749366E-04  1.750467E-04  9.725474E+02 -7.260232E-09 -1.599908E-07 -3.313667E-09
        20   4  1.746587E-04  1.746587E-04  9.725474E+02 -1.972358E-08 -2.202034E-07 -2.202069E-07
        20   5  1.751576E-04  1.751576E-04  9.725474E+02  1.647390E-07  4.641933E-07  4.641953E-07
        20   6  1.753457E-04  1.755355E-04  9.725474E+02  2.155301E-07 -4.593319E-07  6.794297E-07
        20   7  1.755355E-04  1.753457E-04  9.725474E+02  2.155332E-07  6.794319E-07 -4.593305E-07
        20   8  1.742834E-04  1.742834E-04  9.725474E+02  2.632302E-07 -5.218163E-07 -5.218161E-07